# vtk DataFile Version 3.0
Tas atttim havaya
ASCII
DATASET POLYDATA
POINTS 19 float
0.0 0.0 0
129.40952255126038 478.0629131445342 0
258.81904510252076 946.3258262890683 0
388.22856765378117 1404.7887394336026 0
517.6380902050415 1853.4516525781366 0
647.0476127563019 2292.314565722671 0
776.4571353075623 2721.377478867205 0
905.8666578588227 3140.6403920117396 0
1035.276180410083 3550.1033051562736 0
1164.6857029613434 3949.7662183008074 0
1294.0952255126037 4339.629131445342 0
1423.504748063864 4719.692044589876 0
1552.9142706151247 5089.95495773441 0
1682.323793166385 5450.417870878944 0
1811.7333157176454 5801.080784023479 0
1941.1428382689057 6141.9436971680125 0
2070.552360820166 6473.006610312546 0
2199.9618833714267 6794.26952345708 0
2329.371405922687 7105.732436601615 0
POINT_DATA 19 
SCALARS nerede float 
LOOKUP_TABLE default
1
1
1
1
1
1
1
1
1
1
1
1
1
1
1
1
1
1
1
VECTORS yonu float
0.25881904510252074 0.9659258262890683 0
0.263810076127632 0.9645746439408062 0
0.26898976344267445 0.9631430356717813 0
0.2743685161418174 0.9616246239308441 0
0.279957479022531 0.9600124009299823 0
0.2857685935067171 0.958298654368873 0
0.29181466392482686 0.9564748830567589 0
0.2981094295690477 0.9545317008889842 0
0.30466764291800374 0.952458727378141 0
0.3115051544160775 0.9502444626369658 0
0.318639004148711 0.9478761443538485 0
0.3260875206818244 0.945339583882734 0
0.333870427216563 0.9426189780766298 0
0.3420089550335072 0.9396966929157984 0
0.35052596394120233 0.9365530143046313 0
0.3594460690728548 0.9331658606207539 0
0.36879577285286713 0.9295104506813553 0
0.37860360022898826 0.9255589197310178 0
0.38890023426638287 0.9212798748412734 0
