# vtk DataFile Version 3.0
Tas atttim havaya
ASCII
DATASET POLYDATA
POINTS 12 float
0.0 0.0 0
129.40952255126038 478.0629131445342 0
258.81904510252076 946.3258262890683 0
388.22856765378117 1404.7887394336026 0
517.6380902050415 1853.4516525781366 0
647.0476127563019 2292.314565722671 0
776.4571353075623 2721.377478867205 0
905.8666578588227 3140.6403920117396 0
1035.276180410083 3550.1033051562736 0
1164.6857029613434 3949.7662183008074 0
1294.0952255126037 4339.629131445342 0
1423.504748063864 4719.692044589876 0
POINT_DATA 12 
SCALARS nerede float 
LOOKUP_TABLE default
1
1
1
1
1
1
1
1
1
1
1
1
VECTORS yonu float
0.25881904510252074 0.9659258262890683 0
0.263810076127632 0.9645746439408062 0
0.26898976344267445 0.9631430356717813 0
0.2743685161418174 0.9616246239308441 0
0.279957479022531 0.9600124009299823 0
0.2857685935067171 0.958298654368873 0
0.29181466392482686 0.9564748830567589 0
0.2981094295690477 0.9545317008889842 0
0.30466764291800374 0.952458727378141 0
0.3115051544160775 0.9502444626369658 0
0.318639004148711 0.9478761443538485 0
0.3260875206818244 0.945339583882734 0
