# vtk DataFile Version 3.0
Tas atttim havaya
ASCII
DATASET POLYDATA
POINTS 83 float
0.0 0.0 0
129.40952255126038 478.0629131445342 0
258.81904510252076 946.3258262890683 0
388.22856765378117 1404.7887394336026 0
517.6380902050415 1853.4516525781366 0
647.0476127563019 2292.314565722671 0
776.4571353075623 2721.377478867205 0
905.8666578588227 3140.6403920117396 0
1035.276180410083 3550.1033051562736 0
1164.6857029613434 3949.7662183008074 0
1294.0952255126037 4339.629131445342 0
1423.504748063864 4719.692044589876 0
1552.9142706151247 5089.95495773441 0
1682.323793166385 5450.417870878944 0
1811.7333157176454 5801.080784023479 0
1941.1428382689057 6141.9436971680125 0
2070.552360820166 6473.006610312546 0
2199.9618833714267 6794.26952345708 0
2329.371405922687 7105.732436601615 0
2458.7809284739474 7407.39534974615 0
2588.1904510252075 7699.258262890684 0
2717.599973576468 7981.321176035219 0
2847.009496127728 8253.584089179752 0
2976.419018678989 8516.047002324285 0
3105.8285412302494 8768.70991546882 0
3235.2380637815095 9011.572828613354 0
3364.64758633277 9244.63574175789 0
3494.05710888403 9467.898654902423 0
3623.4666314352908 9681.361568046957 0
3752.876153986551 9885.024481191489 0
3882.2856765378115 10078.887394336025 0
4011.6951990890716 10262.950307480558 0
4141.104721640332 10437.213220625094 0
4270.514244191592 10601.676133769628 0
4399.923766742853 10756.33904691416 0
4529.3332892941135 10901.201960058697 0
4658.742811845374 11036.264873203228 0
4788.152334396634 11161.527786347766 0
4917.561856947895 11276.990699492299 0
5046.971379499155 11382.65361263683 0
5176.380902050415 11478.516525781368 0
5305.790424601676 11564.5794389259 0
5435.199947152936 11640.842352070436 0
5564.609469704196 11707.305265214969 0
5694.018992255456 11763.968178359504 0
5823.428514806717 11810.831091504037 0
5952.838037357978 11847.894004648571 0
6082.247559909238 11875.156917793107 0
6211.657082460499 11892.61983093764 0
6341.066605011759 11900.282744082175 0
6470.476127563019 11898.145657226707 0
6599.885650114279 11886.208570371246 0
6729.29517266554 11864.471483515777 0
6858.7046952168 11832.934396660308 0
6988.11421776806 11791.597309804845 0
7117.5237403193205 11740.46022294938 0
7246.9332628705815 11679.523136093914 0
7376.342785421842 11608.786049238448 0
7505.752307973102 11528.248962382979 0
7635.161830524363 11437.911875527516 0
7764.571353075623 11337.77478867205 0
7893.980875626883 11227.837701816585 0
8023.390398178143 11108.100614961117 0
8152.799920729404 10978.563528105653 0
8282.209443280664 10839.226441250186 0
8411.618965831925 10690.08935439472 0
8541.028488383185 10531.152267539255 0
8670.438010934446 10362.415180683787 0
8799.847533485707 10183.87809382832 0
8929.257056036966 9995.54100697286 0
9058.666578588227 9797.403920117395 0
9188.076101139486 9589.466833261926 0
9317.485623690747 9371.729746406458 0
9446.895146242008 9144.19265955099 0
9576.304668793267 8906.855572695531 0
9705.714191344528 8659.718485840065 0
9835.12371389579 8402.781398984596 0
9964.533236447049 8136.044312129128 0
10093.94275899831 7859.507225273661 0
10223.35228154957 7573.1701384182015 0
10352.76180410083 7277.033051562736 0
10482.171326652091 6971.095964707267 0
10611.580849203352 6655.358877851802 0
POINT_DATA 83 
SCALARS nerede float 
LOOKUP_TABLE default
1
1
1
1
1
1
1
1
1
1
1
1
1
1
1
1
1
1
1
1
1
1
1
1
1
1
1
1
1
1
1
1
1
1
1
1
1
1
1
1
1
1
1
1
1
1
1
1
1
1
1
1
1
1
1
1
1
1
1
1
1
1
1
1
1
1
1
1
1
1
1
1
1
1
1
1
1
1
1
1
1
1
1
VECTORS yonu float
0.25881904510252074 0.9659258262890683 0
0.263810076127632 0.9645746439408062 0
0.26898976344267445 0.9631430356717813 0
0.2743685161418174 0.9616246239308441 0
0.279957479022531 0.9600124009299823 0
0.2857685935067171 0.958298654368873 0
0.29181466392482686 0.9564748830567589 0
0.2981094295690477 0.9545317008889842 0
0.30466764291800374 0.952458727378141 0
0.3115051544160775 0.9502444626369658 0
0.318639004148711 0.9478761443538485 0
0.3260875206818244 0.945339583882734 0
0.333870427216563 0.9426189780766298 0
0.3420089550335072 0.9396966929157984 0
0.35052596394120233 0.9365530143046313 0
0.3594460690728548 0.9331658606207539 0
0.36879577285286713 0.9295104506813553 0
0.37860360022898826 0.9255589197310178 0
0.38890023426638287 0.9212798748412734 0
0.3997186478343026 0.9166378797396041 0
0.41109422526208594 0.9115928575609646 0
0.423064865338463 0.906099398364301 0
0.43567105366723635 0.9001059565387177 0
0.4489558879026685 0.8935539215500798 0
0.46296503342350037 0.8863765440416264 0
0.4777465791310646 0.8784976984196177 0
0.49335075274172707 0.8698304632335955 0
0.5098294415566791 0.8602755026862062 0
0.5272354475288915 0.8497192376714848 0
0.5456213837981886 0.8380318046125396 0
0.5650380931643144 0.8250648176193404 0
0.5855324370778953 0.8106489777515422 0
0.6071442674557344 0.7945916174335339 0
0.6299023555780336 0.77667433486452 0
0.6538190182744886 0.7566509706215832 0
0.6788831625087336 0.7342463153888759 0
0.7050514841776231 0.7091561214985956 0
0.7322376353277567 0.6810492239255655 0
0.7602993594334452 0.6495728473736359 0
0.7890239430633451 0.6143624478048533 0
0.8181129045038616 0.575057627968063 0
0.8471676761234627 0.5313256332340575 0
0.8756791105899383 0.48289346162110586 0
0.9030247849936222 0.429588451529161 0
0.9284789073072844 0.37138513525109085 0
0.9512395194880697 0.308453199957637 0
0.9704758999530413 0.24119810863755714 0
0.9853951148821806 0.17028349176104615 0
0.9953209062762333 0.09662449756380428 0
0.9997721633650606 0.021345288949709947 0
0.9985247640095333 -0.05429821046503979 0
0.9916420452893434 -0.12901958771584882 0
0.979466086645865 -0.20160899064931315 0
0.9625720768844639 -0.271025823128221 0
0.9416971878139715 -0.3364615973083078 0
0.9176600398449737 -0.39736639424053094 0
0.8912859517160762 -0.45344167461049306 0
0.8633482712221346 -0.504608524083523 0
0.8345299370813625 -0.5509625977459605 0
0.8054043288735329 -0.5927257941339942 0
0.7764314711337825 -0.6302016904396802 0
0.7479646856301639 -0.6637385246090286 0
0.7202631759030484 -0.6937009135341068 0
0.693507058759821 -0.7204498313208924 0
0.6678125034175788 -0.7443295374222001 0
0.6432456192514705 -0.7656598940220078 0
0.6198344521261174 -0.7847325990154327 0
0.5975789170899942 -0.8018101008652547 0
0.576458765186106 -0.8171262399654718 0
0.5564398146475134 -0.8308879182387001 0
0.5374787228568281 -0.8432773105427378 0
0.5195265724599057 -0.8544542939842144 0
0.5025315176216409 -0.8645588897217413 0
0.4864406996302034 -0.8737135948028268 0
0.47120160329638794 -0.8820255376410104 0
0.4567629910434492 -0.88958842731515 0
0.4430755219275529 -0.8964842898058094 0
0.4300921383822365 -0.9027849979379338 0
0.4177682838705865 -0.9085536093108788 0
0.4060619992017307 -0.9138455300565264 0
0.39493393330399773 -0.9187095233668984 0
0.3843472950687926 -0.9231885813707308 0
0.3742677658979584 -0.9273206777645752 0
