# vtk DataFile Version 3.0
Tas atttim havaya
ASCII
DATASET POLYDATA
POINTS 2 float
0.0 0.0 0
129.40952255126038 478.0629131445342 0
POINT_DATA 2 
SCALARS nerede float 
LOOKUP_TABLE default
1
1
VECTORS yonu float
0.25881904510252074 0.9659258262890683 0
0.263810076127632 0.9645746439408062 0
