# vtk DataFile Version 3.0
Tas atttim havaya
ASCII
DATASET POLYDATA
POINTS 5 float
0.0 0.0 0
129.40952255126038 478.0629131445342 0
258.81904510252076 946.3258262890683 0
388.22856765378117 1404.7887394336026 0
517.6380902050415 1853.4516525781366 0
POINT_DATA 5 
SCALARS nerede float 
LOOKUP_TABLE default
1
1
1
1
1
VECTORS yonu float
0.25881904510252074 0.9659258262890683 0
0.263810076127632 0.9645746439408062 0
0.26898976344267445 0.9631430356717813 0
0.2743685161418174 0.9616246239308441 0
0.279957479022531 0.9600124009299823 0
