# vtk DataFile Version 3.0
Tas atttim havaya
ASCII
DATASET POLYDATA
POINTS 0 float
POINT_DATA 0 
SCALARS nerede float 
LOOKUP_TABLE default
VECTORS yonu float
