# vtk DataFile Version 3.0
Tas atttim havaya
ASCII
DATASET POLYDATA
POINTS 1 float
0.0 0.0 0
POINT_DATA 1 
SCALARS nerede float 
LOOKUP_TABLE default
1
VECTORS yonu float
0.25881904510252074 0.9659258262890683 0
