# vtk DataFile Version 3.0
Tas atttim havaya
ASCII
DATASET POLYDATA
POINTS 40 float
0.0 0.0 0
129.40952255126038 478.0629131445342 0
258.81904510252076 946.3258262890683 0
388.22856765378117 1404.7887394336026 0
517.6380902050415 1853.4516525781366 0
647.0476127563019 2292.314565722671 0
776.4571353075623 2721.377478867205 0
905.8666578588227 3140.6403920117396 0
1035.276180410083 3550.1033051562736 0
1164.6857029613434 3949.7662183008074 0
1294.0952255126037 4339.629131445342 0
1423.504748063864 4719.692044589876 0
1552.9142706151247 5089.95495773441 0
1682.323793166385 5450.417870878944 0
1811.7333157176454 5801.080784023479 0
1941.1428382689057 6141.9436971680125 0
2070.552360820166 6473.006610312546 0
2199.9618833714267 6794.26952345708 0
2329.371405922687 7105.732436601615 0
2458.7809284739474 7407.39534974615 0
2588.1904510252075 7699.258262890684 0
2717.599973576468 7981.321176035219 0
2847.009496127728 8253.584089179752 0
2976.419018678989 8516.047002324285 0
3105.8285412302494 8768.70991546882 0
3235.2380637815095 9011.572828613354 0
3364.64758633277 9244.63574175789 0
3494.05710888403 9467.898654902423 0
3623.4666314352908 9681.361568046957 0
3752.876153986551 9885.024481191489 0
3882.2856765378115 10078.887394336025 0
4011.6951990890716 10262.950307480558 0
4141.104721640332 10437.213220625094 0
4270.514244191592 10601.676133769628 0
4399.923766742853 10756.33904691416 0
4529.3332892941135 10901.201960058697 0
4658.742811845374 11036.264873203228 0
4788.152334396634 11161.527786347766 0
4917.561856947895 11276.990699492299 0
5046.971379499155 11382.65361263683 0
POINT_DATA 40 
SCALARS nerede float 
LOOKUP_TABLE default
1
1
1
1
1
1
1
1
1
1
1
1
1
1
1
1
1
1
1
1
1
1
1
1
1
1
1
1
1
1
1
1
1
1
1
1
1
1
1
1
VECTORS yonu float
0.25881904510252074 0.9659258262890683 0
0.263810076127632 0.9645746439408062 0
0.26898976344267445 0.9631430356717813 0
0.2743685161418174 0.9616246239308441 0
0.279957479022531 0.9600124009299823 0
0.2857685935067171 0.958298654368873 0
0.29181466392482686 0.9564748830567589 0
0.2981094295690477 0.9545317008889842 0
0.30466764291800374 0.952458727378141 0
0.3115051544160775 0.9502444626369658 0
0.318639004148711 0.9478761443538485 0
0.3260875206818244 0.945339583882734 0
0.333870427216563 0.9426189780766298 0
0.3420089550335072 0.9396966929157984 0
0.35052596394120233 0.9365530143046313 0
0.3594460690728548 0.9331658606207539 0
0.36879577285286713 0.9295104506813553 0
0.37860360022898826 0.9255589197310178 0
0.38890023426638287 0.9212798748412734 0
0.3997186478343026 0.9166378797396041 0
0.41109422526208594 0.9115928575609646 0
0.423064865338463 0.906099398364301 0
0.43567105366723635 0.9001059565387177 0
0.4489558879026685 0.8935539215500798 0
0.46296503342350037 0.8863765440416264 0
0.4777465791310646 0.8784976984196177 0
0.49335075274172707 0.8698304632335955 0
0.5098294415566791 0.8602755026862062 0
0.5272354475288915 0.8497192376714848 0
0.5456213837981886 0.8380318046125396 0
0.5650380931643144 0.8250648176193404 0
0.5855324370778953 0.8106489777515422 0
0.6071442674557344 0.7945916174335339 0
0.6299023555780336 0.77667433486452 0
0.6538190182744886 0.7566509706215832 0
0.6788831625087336 0.7342463153888759 0
0.7050514841776231 0.7091561214985956 0
0.7322376353277567 0.6810492239255655 0
0.7602993594334452 0.6495728473736359 0
0.7890239430633451 0.6143624478048533 0
